phono3py:
  version: 2.5.1
  frequency_unit_conversion_factor: 15.633302
  symmetry_tolerance: 1.00000e-05
  configuration:
    mesh_numbers: "3 3 3"
    dim: "1 1 1"
    tmax: "1000"
    tmin: "10"
    bterta: ".true."
    read_fc2: ".true."
    read_fc3: ".true."

physical_unit:
  atomic_mass: "AMU"
  length: "angstrom"

space_group:
  type: "I4/mcm"
  number: 140
  Hall_symbol: "-I 4 2c"

supercell_matrix:
- [   1,   0,   0 ]
- [   0,   1,   0 ]
- [   0,   0,   1 ]

primitive_cell:
  lattice:
  - [     5.912003360000000,     0.000000000000000,     0.000000000000000 ] # a
  - [     0.000000000000000,     5.912001460000000,     0.000000000000000 ] # b
  - [     0.000000000000000,     0.000000000000000,     8.410217449999999 ] # c
  points:
  - symbol: Ba # 1
    coordinates: [  0.000865530631228,  0.500865691599474,  0.248366903997233 ]
    mass: 137.327000
  - symbol: Ba # 2
    coordinates: [  0.500865530631228,  0.000865691599474,  0.248366903997233 ]
    mass: 137.327000
  - symbol: Ba # 3
    coordinates: [  0.500865530631228,  0.000865691599474,  0.748366904591748 ]
    mass: 137.327000
  - symbol: Ba # 4
    coordinates: [  0.000865530631228,  0.500865691599474,  0.748366904591748 ]
    mass: 137.327000
  - symbol: Zr # 5
    coordinates: [  0.500865530631228,  0.500865691599474,  0.498366904889005 ]
    mass: 91.224000
  - symbol: Zr # 6
    coordinates: [  0.000865530631228,  0.000865691599474,  0.498366904889005 ]
    mass: 91.224000
  - symbol: Zr # 7
    coordinates: [  0.000865530631228,  0.000865691599474,  0.998366904294490 ]
    mass: 91.224000
  - symbol: Zr # 8
    coordinates: [  0.500865530631228,  0.500865691599474,  0.998366904294490 ]
    mass: 91.224000
  - symbol: O  # 9
    coordinates: [  0.771772149331119,  0.271772201152332,  0.498366904889005 ]
    mass: 15.999400
  - symbol: O  # 10
    coordinates: [  0.729958911931336,  0.771772201152332,  0.498366904889005 ]
    mass: 15.999400
  - symbol: O  # 11
    coordinates: [  0.271772149331119,  0.229959182046616,  0.498366904889005 ]
    mass: 15.999400
  - symbol: O  # 12
    coordinates: [  0.229958911931336,  0.729959182046616,  0.498366904889005 ]
    mass: 15.999400
  - symbol: O  # 13
    coordinates: [  0.500865530631228,  0.500865691599474,  0.248366903997233 ]
    mass: 15.999400
  - symbol: O  # 14
    coordinates: [  0.000865530631228,  0.000865691599474,  0.248366903997233 ]
    mass: 15.999400
  - symbol: O  # 15
    coordinates: [  0.271772149331119,  0.771772201152332,  0.998366904294490 ]
    mass: 15.999400
  - symbol: O  # 16
    coordinates: [  0.229958911931336,  0.271772201152332,  0.998366904294490 ]
    mass: 15.999400
  - symbol: O  # 17
    coordinates: [  0.771772149331119,  0.729959182046616,  0.998366904294490 ]
    mass: 15.999400
  - symbol: O  # 18
    coordinates: [  0.729958911931336,  0.229959182046616,  0.998366904294490 ]
    mass: 15.999400
  - symbol: O  # 19
    coordinates: [  0.000865530631228,  0.000865691599474,  0.748366904591748 ]
    mass: 15.999400
  - symbol: O  # 20
    coordinates: [  0.500865530631228,  0.500865691599474,  0.748366904591748 ]
    mass: 15.999400
  reciprocal_lattice: # without 2pi
  - [     0.169147400484563,     0.000000000000000,     0.000000000000000 ] # a*
  - [     0.000000000000000,     0.169147454845182,     0.000000000000000 ] # b*
  - [     0.000000000000000,     0.000000000000000,     0.118902989838866 ] # c*

unit_cell:
  lattice:
  - [     5.912003360000000,     0.000000000000000,     0.000000000000000 ] # a
  - [     0.000000000000000,     5.912001460000000,     0.000000000000000 ] # b
  - [     0.000000000000000,     0.000000000000000,     8.410217449999999 ] # c
  points:
  - symbol: Ba # 1
    coordinates: [  0.000865530631228,  0.500865691599474,  0.248366903997233 ]
    mass: 137.327000
    reduced_to: 1
  - symbol: Ba # 2
    coordinates: [  0.500865530631228,  0.000865691599474,  0.248366903997233 ]
    mass: 137.327000
    reduced_to: 2
  - symbol: Ba # 3
    coordinates: [  0.500865530631228,  0.000865691599474,  0.748366904591748 ]
    mass: 137.327000
    reduced_to: 3
  - symbol: Ba # 4
    coordinates: [  0.000865530631228,  0.500865691599474,  0.748366904591748 ]
    mass: 137.327000
    reduced_to: 4
  - symbol: Zr # 5
    coordinates: [  0.500865530631228,  0.500865691599474,  0.498366904889005 ]
    mass: 91.224000
    reduced_to: 5
  - symbol: Zr # 6
    coordinates: [  0.000865530631228,  0.000865691599474,  0.498366904889005 ]
    mass: 91.224000
    reduced_to: 6
  - symbol: Zr # 7
    coordinates: [  0.000865530631228,  0.000865691599474,  0.998366904294490 ]
    mass: 91.224000
    reduced_to: 7
  - symbol: Zr # 8
    coordinates: [  0.500865530631228,  0.500865691599474,  0.998366904294490 ]
    mass: 91.224000
    reduced_to: 8
  - symbol: O  # 9
    coordinates: [  0.771772149331119,  0.271772201152332,  0.498366904889005 ]
    mass: 15.999400
    reduced_to: 9
  - symbol: O  # 10
    coordinates: [  0.729958911931336,  0.771772201152332,  0.498366904889005 ]
    mass: 15.999400
    reduced_to: 10
  - symbol: O  # 11
    coordinates: [  0.271772149331119,  0.229959182046616,  0.498366904889005 ]
    mass: 15.999400
    reduced_to: 11
  - symbol: O  # 12
    coordinates: [  0.229958911931336,  0.729959182046616,  0.498366904889005 ]
    mass: 15.999400
    reduced_to: 12
  - symbol: O  # 13
    coordinates: [  0.500865530631228,  0.500865691599474,  0.248366903997233 ]
    mass: 15.999400
    reduced_to: 13
  - symbol: O  # 14
    coordinates: [  0.000865530631228,  0.000865691599474,  0.248366903997233 ]
    mass: 15.999400
    reduced_to: 14
  - symbol: O  # 15
    coordinates: [  0.271772149331119,  0.771772201152332,  0.998366904294490 ]
    mass: 15.999400
    reduced_to: 15
  - symbol: O  # 16
    coordinates: [  0.229958911931336,  0.271772201152332,  0.998366904294490 ]
    mass: 15.999400
    reduced_to: 16
  - symbol: O  # 17
    coordinates: [  0.771772149331119,  0.729959182046616,  0.998366904294490 ]
    mass: 15.999400
    reduced_to: 17
  - symbol: O  # 18
    coordinates: [  0.729958911931336,  0.229959182046616,  0.998366904294490 ]
    mass: 15.999400
    reduced_to: 18
  - symbol: O  # 19
    coordinates: [  0.000865530631228,  0.000865691599474,  0.748366904591748 ]
    mass: 15.999400
    reduced_to: 19
  - symbol: O  # 20
    coordinates: [  0.500865530631228,  0.500865691599474,  0.748366904591748 ]
    mass: 15.999400
    reduced_to: 20

supercell:
  lattice:
  - [     5.912003360000000,     0.000000000000000,     0.000000000000000 ] # a
  - [     0.000000000000000,     5.912001460000000,     0.000000000000000 ] # b
  - [     0.000000000000000,     0.000000000000000,     8.410217449999999 ] # c
  points:
  - symbol: Ba # 1
    coordinates: [  0.000865530631228,  0.500865691599474,  0.248366903997233 ]
    mass: 137.327000
    reduced_to: 1
  - symbol: Ba # 2
    coordinates: [  0.500865530631228,  0.000865691599474,  0.248366903997233 ]
    mass: 137.327000
    reduced_to: 2
  - symbol: Ba # 3
    coordinates: [  0.500865530631228,  0.000865691599474,  0.748366904591748 ]
    mass: 137.327000
    reduced_to: 3
  - symbol: Ba # 4
    coordinates: [  0.000865530631228,  0.500865691599474,  0.748366904591748 ]
    mass: 137.327000
    reduced_to: 4
  - symbol: Zr # 5
    coordinates: [  0.500865530631228,  0.500865691599474,  0.498366904889005 ]
    mass: 91.224000
    reduced_to: 5
  - symbol: Zr # 6
    coordinates: [  0.000865530631228,  0.000865691599474,  0.498366904889005 ]
    mass: 91.224000
    reduced_to: 6
  - symbol: Zr # 7
    coordinates: [  0.000865530631228,  0.000865691599474,  0.998366904294490 ]
    mass: 91.224000
    reduced_to: 7
  - symbol: Zr # 8
    coordinates: [  0.500865530631228,  0.500865691599474,  0.998366904294490 ]
    mass: 91.224000
    reduced_to: 8
  - symbol: O  # 9
    coordinates: [  0.771772149331119,  0.271772201152332,  0.498366904889005 ]
    mass: 15.999400
    reduced_to: 9
  - symbol: O  # 10
    coordinates: [  0.729958911931336,  0.771772201152332,  0.498366904889005 ]
    mass: 15.999400
    reduced_to: 10
  - symbol: O  # 11
    coordinates: [  0.271772149331119,  0.229959182046616,  0.498366904889005 ]
    mass: 15.999400
    reduced_to: 11
  - symbol: O  # 12
    coordinates: [  0.229958911931336,  0.729959182046616,  0.498366904889005 ]
    mass: 15.999400
    reduced_to: 12
  - symbol: O  # 13
    coordinates: [  0.500865530631228,  0.500865691599474,  0.248366903997233 ]
    mass: 15.999400
    reduced_to: 13
  - symbol: O  # 14
    coordinates: [  0.000865530631228,  0.000865691599474,  0.248366903997233 ]
    mass: 15.999400
    reduced_to: 14
  - symbol: O  # 15
    coordinates: [  0.271772149331119,  0.771772201152332,  0.998366904294490 ]
    mass: 15.999400
    reduced_to: 15
  - symbol: O  # 16
    coordinates: [  0.229958911931336,  0.271772201152332,  0.998366904294490 ]
    mass: 15.999400
    reduced_to: 16
  - symbol: O  # 17
    coordinates: [  0.771772149331119,  0.729959182046616,  0.998366904294490 ]
    mass: 15.999400
    reduced_to: 17
  - symbol: O  # 18
    coordinates: [  0.729958911931336,  0.229959182046616,  0.998366904294490 ]
    mass: 15.999400
    reduced_to: 18
  - symbol: O  # 19
    coordinates: [  0.000865530631228,  0.000865691599474,  0.748366904591748 ]
    mass: 15.999400
    reduced_to: 19
  - symbol: O  # 20
    coordinates: [  0.500865530631228,  0.500865691599474,  0.748366904591748 ]
    mass: 15.999400
    reduced_to: 20

phonon_primitive_cell:
  lattice:
  - [     5.912003360000000,     0.000000000000000,     0.000000000000000 ] # a
  - [     0.000000000000000,     5.912001460000000,     0.000000000000000 ] # b
  - [     0.000000000000000,     0.000000000000000,     8.410217449999999 ] # c
  points:
  - symbol: Ba # 1
    coordinates: [  0.000865530631228,  0.500865691599474,  0.248366903997233 ]
    mass: 137.327000
  - symbol: Ba # 2
    coordinates: [  0.500865530631228,  0.000865691599474,  0.248366903997233 ]
    mass: 137.327000
  - symbol: Ba # 3
    coordinates: [  0.500865530631228,  0.000865691599474,  0.748366904591748 ]
    mass: 137.327000
  - symbol: Ba # 4
    coordinates: [  0.000865530631228,  0.500865691599474,  0.748366904591748 ]
    mass: 137.327000
  - symbol: Zr # 5
    coordinates: [  0.500865530631228,  0.500865691599474,  0.498366904889005 ]
    mass: 91.224000
  - symbol: Zr # 6
    coordinates: [  0.000865530631228,  0.000865691599474,  0.498366904889005 ]
    mass: 91.224000
  - symbol: Zr # 7
    coordinates: [  0.000865530631228,  0.000865691599474,  0.998366904294490 ]
    mass: 91.224000
  - symbol: Zr # 8
    coordinates: [  0.500865530631228,  0.500865691599474,  0.998366904294490 ]
    mass: 91.224000
  - symbol: O  # 9
    coordinates: [  0.771772149331119,  0.271772201152332,  0.498366904889005 ]
    mass: 15.999400
  - symbol: O  # 10
    coordinates: [  0.729958911931336,  0.771772201152332,  0.498366904889005 ]
    mass: 15.999400
  - symbol: O  # 11
    coordinates: [  0.271772149331119,  0.229959182046616,  0.498366904889005 ]
    mass: 15.999400
  - symbol: O  # 12
    coordinates: [  0.229958911931336,  0.729959182046616,  0.498366904889005 ]
    mass: 15.999400
  - symbol: O  # 13
    coordinates: [  0.500865530631228,  0.500865691599474,  0.248366903997233 ]
    mass: 15.999400
  - symbol: O  # 14
    coordinates: [  0.000865530631228,  0.000865691599474,  0.248366903997233 ]
    mass: 15.999400
  - symbol: O  # 15
    coordinates: [  0.271772149331119,  0.771772201152332,  0.998366904294490 ]
    mass: 15.999400
  - symbol: O  # 16
    coordinates: [  0.229958911931336,  0.271772201152332,  0.998366904294490 ]
    mass: 15.999400
  - symbol: O  # 17
    coordinates: [  0.771772149331119,  0.729959182046616,  0.998366904294490 ]
    mass: 15.999400
  - symbol: O  # 18
    coordinates: [  0.729958911931336,  0.229959182046616,  0.998366904294490 ]
    mass: 15.999400
  - symbol: O  # 19
    coordinates: [  0.000865530631228,  0.000865691599474,  0.748366904591748 ]
    mass: 15.999400
  - symbol: O  # 20
    coordinates: [  0.500865530631228,  0.500865691599474,  0.748366904591748 ]
    mass: 15.999400
  reciprocal_lattice: # without 2pi
  - [     0.169147400484563,     0.000000000000000,     0.000000000000000 ] # a*
  - [     0.000000000000000,     0.169147454845182,     0.000000000000000 ] # b*
  - [     0.000000000000000,     0.000000000000000,     0.118902989838866 ] # c*

phonon_supercell:
  lattice:
  - [     5.912003360000000,     0.000000000000000,     0.000000000000000 ] # a
  - [     0.000000000000000,     5.912001460000000,     0.000000000000000 ] # b
  - [     0.000000000000000,     0.000000000000000,     8.410217449999999 ] # c
  points:
  - symbol: Ba # 1
    coordinates: [  0.000865530631228,  0.500865691599474,  0.248366903997233 ]
    mass: 137.327000
    reduced_to: 1
  - symbol: Ba # 2
    coordinates: [  0.500865530631228,  0.000865691599474,  0.248366903997233 ]
    mass: 137.327000
    reduced_to: 2
  - symbol: Ba # 3
    coordinates: [  0.500865530631228,  0.000865691599474,  0.748366904591748 ]
    mass: 137.327000
    reduced_to: 3
  - symbol: Ba # 4
    coordinates: [  0.000865530631228,  0.500865691599474,  0.748366904591748 ]
    mass: 137.327000
    reduced_to: 4
  - symbol: Zr # 5
    coordinates: [  0.500865530631228,  0.500865691599474,  0.498366904889005 ]
    mass: 91.224000
    reduced_to: 5
  - symbol: Zr # 6
    coordinates: [  0.000865530631228,  0.000865691599474,  0.498366904889005 ]
    mass: 91.224000
    reduced_to: 6
  - symbol: Zr # 7
    coordinates: [  0.000865530631228,  0.000865691599474,  0.998366904294490 ]
    mass: 91.224000
    reduced_to: 7
  - symbol: Zr # 8
    coordinates: [  0.500865530631228,  0.500865691599474,  0.998366904294490 ]
    mass: 91.224000
    reduced_to: 8
  - symbol: O  # 9
    coordinates: [  0.771772149331119,  0.271772201152332,  0.498366904889005 ]
    mass: 15.999400
    reduced_to: 9
  - symbol: O  # 10
    coordinates: [  0.729958911931336,  0.771772201152332,  0.498366904889005 ]
    mass: 15.999400
    reduced_to: 10
  - symbol: O  # 11
    coordinates: [  0.271772149331119,  0.229959182046616,  0.498366904889005 ]
    mass: 15.999400
    reduced_to: 11
  - symbol: O  # 12
    coordinates: [  0.229958911931336,  0.729959182046616,  0.498366904889005 ]
    mass: 15.999400
    reduced_to: 12
  - symbol: O  # 13
    coordinates: [  0.500865530631228,  0.500865691599474,  0.248366903997233 ]
    mass: 15.999400
    reduced_to: 13
  - symbol: O  # 14
    coordinates: [  0.000865530631228,  0.000865691599474,  0.248366903997233 ]
    mass: 15.999400
    reduced_to: 14
  - symbol: O  # 15
    coordinates: [  0.271772149331119,  0.771772201152332,  0.998366904294490 ]
    mass: 15.999400
    reduced_to: 15
  - symbol: O  # 16
    coordinates: [  0.229958911931336,  0.271772201152332,  0.998366904294490 ]
    mass: 15.999400
    reduced_to: 16
  - symbol: O  # 17
    coordinates: [  0.771772149331119,  0.729959182046616,  0.998366904294490 ]
    mass: 15.999400
    reduced_to: 17
  - symbol: O  # 18
    coordinates: [  0.729958911931336,  0.229959182046616,  0.998366904294490 ]
    mass: 15.999400
    reduced_to: 18
  - symbol: O  # 19
    coordinates: [  0.000865530631228,  0.000865691599474,  0.748366904591748 ]
    mass: 15.999400
    reduced_to: 19
  - symbol: O  # 20
    coordinates: [  0.500865530631228,  0.500865691599474,  0.748366904591748 ]
    mass: 15.999400
    reduced_to: 20
