phono3py:
  version: 2.5.1
  frequency_unit_conversion_factor: 15.633302
  symmetry_tolerance: 1.00000e-05
  configuration:
    cell_filename: "POSCAR_BZO_ROTATION"
    create_displacements: ".true."
    dim: "1 1 1"

physical_unit:
  atomic_mass: "AMU"
  length: "angstrom"

space_group:
  type: "I4/mcm"
  number: 140
  Hall_symbol: "-I 4 2c"

supercell_matrix:
- [   1,   0,   0 ]
- [   0,   1,   0 ]
- [   0,   0,   1 ]

primitive_cell:
  lattice:
  - [     5.912003360000000,     0.000000000000000,     0.000000000000000 ] # a
  - [     0.000000000000000,     5.912001460000000,     0.000000000000000 ] # b
  - [     0.000000000000000,     0.000000000000000,     8.410217449999999 ] # c
  points:
  - symbol: Ba # 1
    coordinates: [  0.000865530631228,  0.500865691599474,  0.248366903997233 ]
    mass: 137.327000
  - symbol: Ba # 2
    coordinates: [  0.500865530631228,  0.000865691599474,  0.248366903997233 ]
    mass: 137.327000
  - symbol: Ba # 3
    coordinates: [  0.500865530631228,  0.000865691599474,  0.748366904591748 ]
    mass: 137.327000
  - symbol: Ba # 4
    coordinates: [  0.000865530631228,  0.500865691599474,  0.748366904591748 ]
    mass: 137.327000
  - symbol: Zr # 5
    coordinates: [  0.500865530631228,  0.500865691599474,  0.498366904889005 ]
    mass: 91.224000
  - symbol: Zr # 6
    coordinates: [  0.000865530631228,  0.000865691599474,  0.498366904889005 ]
    mass: 91.224000
  - symbol: Zr # 7
    coordinates: [  0.000865530631228,  0.000865691599474,  0.998366904294490 ]
    mass: 91.224000
  - symbol: Zr # 8
    coordinates: [  0.500865530631228,  0.500865691599474,  0.998366904294490 ]
    mass: 91.224000
  - symbol: O  # 9
    coordinates: [  0.771772149331119,  0.271772201152332,  0.498366904889005 ]
    mass: 15.999400
  - symbol: O  # 10
    coordinates: [  0.729958911931336,  0.771772201152332,  0.498366904889005 ]
    mass: 15.999400
  - symbol: O  # 11
    coordinates: [  0.271772149331119,  0.229959182046616,  0.498366904889005 ]
    mass: 15.999400
  - symbol: O  # 12
    coordinates: [  0.229958911931336,  0.729959182046616,  0.498366904889005 ]
    mass: 15.999400
  - symbol: O  # 13
    coordinates: [  0.500865530631228,  0.500865691599474,  0.248366903997233 ]
    mass: 15.999400
  - symbol: O  # 14
    coordinates: [  0.000865530631228,  0.000865691599474,  0.248366903997233 ]
    mass: 15.999400
  - symbol: O  # 15
    coordinates: [  0.271772149331119,  0.771772201152332,  0.998366904294490 ]
    mass: 15.999400
  - symbol: O  # 16
    coordinates: [  0.229958911931336,  0.271772201152332,  0.998366904294490 ]
    mass: 15.999400
  - symbol: O  # 17
    coordinates: [  0.771772149331119,  0.729959182046616,  0.998366904294490 ]
    mass: 15.999400
  - symbol: O  # 18
    coordinates: [  0.729958911931336,  0.229959182046616,  0.998366904294490 ]
    mass: 15.999400
  - symbol: O  # 19
    coordinates: [  0.000865530631228,  0.000865691599474,  0.748366904591748 ]
    mass: 15.999400
  - symbol: O  # 20
    coordinates: [  0.500865530631228,  0.500865691599474,  0.748366904591748 ]
    mass: 15.999400
  reciprocal_lattice: # without 2pi
  - [     0.169147400484563,     0.000000000000000,     0.000000000000000 ] # a*
  - [     0.000000000000000,     0.169147454845182,     0.000000000000000 ] # b*
  - [     0.000000000000000,     0.000000000000000,     0.118902989838866 ] # c*

unit_cell:
  lattice:
  - [     5.912003360000000,     0.000000000000000,     0.000000000000000 ] # a
  - [     0.000000000000000,     5.912001460000000,     0.000000000000000 ] # b
  - [     0.000000000000000,     0.000000000000000,     8.410217449999999 ] # c
  points:
  - symbol: Ba # 1
    coordinates: [  0.000865530631228,  0.500865691599474,  0.248366903997233 ]
    mass: 137.327000
    reduced_to: 1
  - symbol: Ba # 2
    coordinates: [  0.500865530631228,  0.000865691599474,  0.248366903997233 ]
    mass: 137.327000
    reduced_to: 2
  - symbol: Ba # 3
    coordinates: [  0.500865530631228,  0.000865691599474,  0.748366904591748 ]
    mass: 137.327000
    reduced_to: 3
  - symbol: Ba # 4
    coordinates: [  0.000865530631228,  0.500865691599474,  0.748366904591748 ]
    mass: 137.327000
    reduced_to: 4
  - symbol: Zr # 5
    coordinates: [  0.500865530631228,  0.500865691599474,  0.498366904889005 ]
    mass: 91.224000
    reduced_to: 5
  - symbol: Zr # 6
    coordinates: [  0.000865530631228,  0.000865691599474,  0.498366904889005 ]
    mass: 91.224000
    reduced_to: 6
  - symbol: Zr # 7
    coordinates: [  0.000865530631228,  0.000865691599474,  0.998366904294490 ]
    mass: 91.224000
    reduced_to: 7
  - symbol: Zr # 8
    coordinates: [  0.500865530631228,  0.500865691599474,  0.998366904294490 ]
    mass: 91.224000
    reduced_to: 8
  - symbol: O  # 9
    coordinates: [  0.771772149331119,  0.271772201152332,  0.498366904889005 ]
    mass: 15.999400
    reduced_to: 9
  - symbol: O  # 10
    coordinates: [  0.729958911931336,  0.771772201152332,  0.498366904889005 ]
    mass: 15.999400
    reduced_to: 10
  - symbol: O  # 11
    coordinates: [  0.271772149331119,  0.229959182046616,  0.498366904889005 ]
    mass: 15.999400
    reduced_to: 11
  - symbol: O  # 12
    coordinates: [  0.229958911931336,  0.729959182046616,  0.498366904889005 ]
    mass: 15.999400
    reduced_to: 12
  - symbol: O  # 13
    coordinates: [  0.500865530631228,  0.500865691599474,  0.248366903997233 ]
    mass: 15.999400
    reduced_to: 13
  - symbol: O  # 14
    coordinates: [  0.000865530631228,  0.000865691599474,  0.248366903997233 ]
    mass: 15.999400
    reduced_to: 14
  - symbol: O  # 15
    coordinates: [  0.271772149331119,  0.771772201152332,  0.998366904294490 ]
    mass: 15.999400
    reduced_to: 15
  - symbol: O  # 16
    coordinates: [  0.229958911931336,  0.271772201152332,  0.998366904294490 ]
    mass: 15.999400
    reduced_to: 16
  - symbol: O  # 17
    coordinates: [  0.771772149331119,  0.729959182046616,  0.998366904294490 ]
    mass: 15.999400
    reduced_to: 17
  - symbol: O  # 18
    coordinates: [  0.729958911931336,  0.229959182046616,  0.998366904294490 ]
    mass: 15.999400
    reduced_to: 18
  - symbol: O  # 19
    coordinates: [  0.000865530631228,  0.000865691599474,  0.748366904591748 ]
    mass: 15.999400
    reduced_to: 19
  - symbol: O  # 20
    coordinates: [  0.500865530631228,  0.500865691599474,  0.748366904591748 ]
    mass: 15.999400
    reduced_to: 20

supercell:
  lattice:
  - [     5.912003360000000,     0.000000000000000,     0.000000000000000 ] # a
  - [     0.000000000000000,     5.912001460000000,     0.000000000000000 ] # b
  - [     0.000000000000000,     0.000000000000000,     8.410217449999999 ] # c
  points:
  - symbol: Ba # 1
    coordinates: [  0.000865530631228,  0.500865691599474,  0.248366903997233 ]
    mass: 137.327000
    reduced_to: 1
  - symbol: Ba # 2
    coordinates: [  0.500865530631228,  0.000865691599474,  0.248366903997233 ]
    mass: 137.327000
    reduced_to: 2
  - symbol: Ba # 3
    coordinates: [  0.500865530631228,  0.000865691599474,  0.748366904591748 ]
    mass: 137.327000
    reduced_to: 3
  - symbol: Ba # 4
    coordinates: [  0.000865530631228,  0.500865691599474,  0.748366904591748 ]
    mass: 137.327000
    reduced_to: 4
  - symbol: Zr # 5
    coordinates: [  0.500865530631228,  0.500865691599474,  0.498366904889005 ]
    mass: 91.224000
    reduced_to: 5
  - symbol: Zr # 6
    coordinates: [  0.000865530631228,  0.000865691599474,  0.498366904889005 ]
    mass: 91.224000
    reduced_to: 6
  - symbol: Zr # 7
    coordinates: [  0.000865530631228,  0.000865691599474,  0.998366904294490 ]
    mass: 91.224000
    reduced_to: 7
  - symbol: Zr # 8
    coordinates: [  0.500865530631228,  0.500865691599474,  0.998366904294490 ]
    mass: 91.224000
    reduced_to: 8
  - symbol: O  # 9
    coordinates: [  0.771772149331119,  0.271772201152332,  0.498366904889005 ]
    mass: 15.999400
    reduced_to: 9
  - symbol: O  # 10
    coordinates: [  0.729958911931336,  0.771772201152332,  0.498366904889005 ]
    mass: 15.999400
    reduced_to: 10
  - symbol: O  # 11
    coordinates: [  0.271772149331119,  0.229959182046616,  0.498366904889005 ]
    mass: 15.999400
    reduced_to: 11
  - symbol: O  # 12
    coordinates: [  0.229958911931336,  0.729959182046616,  0.498366904889005 ]
    mass: 15.999400
    reduced_to: 12
  - symbol: O  # 13
    coordinates: [  0.500865530631228,  0.500865691599474,  0.248366903997233 ]
    mass: 15.999400
    reduced_to: 13
  - symbol: O  # 14
    coordinates: [  0.000865530631228,  0.000865691599474,  0.248366903997233 ]
    mass: 15.999400
    reduced_to: 14
  - symbol: O  # 15
    coordinates: [  0.271772149331119,  0.771772201152332,  0.998366904294490 ]
    mass: 15.999400
    reduced_to: 15
  - symbol: O  # 16
    coordinates: [  0.229958911931336,  0.271772201152332,  0.998366904294490 ]
    mass: 15.999400
    reduced_to: 16
  - symbol: O  # 17
    coordinates: [  0.771772149331119,  0.729959182046616,  0.998366904294490 ]
    mass: 15.999400
    reduced_to: 17
  - symbol: O  # 18
    coordinates: [  0.729958911931336,  0.229959182046616,  0.998366904294490 ]
    mass: 15.999400
    reduced_to: 18
  - symbol: O  # 19
    coordinates: [  0.000865530631228,  0.000865691599474,  0.748366904591748 ]
    mass: 15.999400
    reduced_to: 19
  - symbol: O  # 20
    coordinates: [  0.500865530631228,  0.500865691599474,  0.748366904591748 ]
    mass: 15.999400
    reduced_to: 20

phonon_primitive_cell:
  lattice:
  - [     5.912003360000000,     0.000000000000000,     0.000000000000000 ] # a
  - [     0.000000000000000,     5.912001460000000,     0.000000000000000 ] # b
  - [     0.000000000000000,     0.000000000000000,     8.410217449999999 ] # c
  points:
  - symbol: Ba # 1
    coordinates: [  0.000865530631228,  0.500865691599474,  0.248366903997233 ]
    mass: 137.327000
  - symbol: Ba # 2
    coordinates: [  0.500865530631228,  0.000865691599474,  0.248366903997233 ]
    mass: 137.327000
  - symbol: Ba # 3
    coordinates: [  0.500865530631228,  0.000865691599474,  0.748366904591748 ]
    mass: 137.327000
  - symbol: Ba # 4
    coordinates: [  0.000865530631228,  0.500865691599474,  0.748366904591748 ]
    mass: 137.327000
  - symbol: Zr # 5
    coordinates: [  0.500865530631228,  0.500865691599474,  0.498366904889005 ]
    mass: 91.224000
  - symbol: Zr # 6
    coordinates: [  0.000865530631228,  0.000865691599474,  0.498366904889005 ]
    mass: 91.224000
  - symbol: Zr # 7
    coordinates: [  0.000865530631228,  0.000865691599474,  0.998366904294490 ]
    mass: 91.224000
  - symbol: Zr # 8
    coordinates: [  0.500865530631228,  0.500865691599474,  0.998366904294490 ]
    mass: 91.224000
  - symbol: O  # 9
    coordinates: [  0.771772149331119,  0.271772201152332,  0.498366904889005 ]
    mass: 15.999400
  - symbol: O  # 10
    coordinates: [  0.729958911931336,  0.771772201152332,  0.498366904889005 ]
    mass: 15.999400
  - symbol: O  # 11
    coordinates: [  0.271772149331119,  0.229959182046616,  0.498366904889005 ]
    mass: 15.999400
  - symbol: O  # 12
    coordinates: [  0.229958911931336,  0.729959182046616,  0.498366904889005 ]
    mass: 15.999400
  - symbol: O  # 13
    coordinates: [  0.500865530631228,  0.500865691599474,  0.248366903997233 ]
    mass: 15.999400
  - symbol: O  # 14
    coordinates: [  0.000865530631228,  0.000865691599474,  0.248366903997233 ]
    mass: 15.999400
  - symbol: O  # 15
    coordinates: [  0.271772149331119,  0.771772201152332,  0.998366904294490 ]
    mass: 15.999400
  - symbol: O  # 16
    coordinates: [  0.229958911931336,  0.271772201152332,  0.998366904294490 ]
    mass: 15.999400
  - symbol: O  # 17
    coordinates: [  0.771772149331119,  0.729959182046616,  0.998366904294490 ]
    mass: 15.999400
  - symbol: O  # 18
    coordinates: [  0.729958911931336,  0.229959182046616,  0.998366904294490 ]
    mass: 15.999400
  - symbol: O  # 19
    coordinates: [  0.000865530631228,  0.000865691599474,  0.748366904591748 ]
    mass: 15.999400
  - symbol: O  # 20
    coordinates: [  0.500865530631228,  0.500865691599474,  0.748366904591748 ]
    mass: 15.999400
  reciprocal_lattice: # without 2pi
  - [     0.169147400484563,     0.000000000000000,     0.000000000000000 ] # a*
  - [     0.000000000000000,     0.169147454845182,     0.000000000000000 ] # b*
  - [     0.000000000000000,     0.000000000000000,     0.118902989838866 ] # c*

phonon_supercell:
  lattice:
  - [     5.912003360000000,     0.000000000000000,     0.000000000000000 ] # a
  - [     0.000000000000000,     5.912001460000000,     0.000000000000000 ] # b
  - [     0.000000000000000,     0.000000000000000,     8.410217449999999 ] # c
  points:
  - symbol: Ba # 1
    coordinates: [  0.000865530631228,  0.500865691599474,  0.248366903997233 ]
    mass: 137.327000
    reduced_to: 1
  - symbol: Ba # 2
    coordinates: [  0.500865530631228,  0.000865691599474,  0.248366903997233 ]
    mass: 137.327000
    reduced_to: 2
  - symbol: Ba # 3
    coordinates: [  0.500865530631228,  0.000865691599474,  0.748366904591748 ]
    mass: 137.327000
    reduced_to: 3
  - symbol: Ba # 4
    coordinates: [  0.000865530631228,  0.500865691599474,  0.748366904591748 ]
    mass: 137.327000
    reduced_to: 4
  - symbol: Zr # 5
    coordinates: [  0.500865530631228,  0.500865691599474,  0.498366904889005 ]
    mass: 91.224000
    reduced_to: 5
  - symbol: Zr # 6
    coordinates: [  0.000865530631228,  0.000865691599474,  0.498366904889005 ]
    mass: 91.224000
    reduced_to: 6
  - symbol: Zr # 7
    coordinates: [  0.000865530631228,  0.000865691599474,  0.998366904294490 ]
    mass: 91.224000
    reduced_to: 7
  - symbol: Zr # 8
    coordinates: [  0.500865530631228,  0.500865691599474,  0.998366904294490 ]
    mass: 91.224000
    reduced_to: 8
  - symbol: O  # 9
    coordinates: [  0.771772149331119,  0.271772201152332,  0.498366904889005 ]
    mass: 15.999400
    reduced_to: 9
  - symbol: O  # 10
    coordinates: [  0.729958911931336,  0.771772201152332,  0.498366904889005 ]
    mass: 15.999400
    reduced_to: 10
  - symbol: O  # 11
    coordinates: [  0.271772149331119,  0.229959182046616,  0.498366904889005 ]
    mass: 15.999400
    reduced_to: 11
  - symbol: O  # 12
    coordinates: [  0.229958911931336,  0.729959182046616,  0.498366904889005 ]
    mass: 15.999400
    reduced_to: 12
  - symbol: O  # 13
    coordinates: [  0.500865530631228,  0.500865691599474,  0.248366903997233 ]
    mass: 15.999400
    reduced_to: 13
  - symbol: O  # 14
    coordinates: [  0.000865530631228,  0.000865691599474,  0.248366903997233 ]
    mass: 15.999400
    reduced_to: 14
  - symbol: O  # 15
    coordinates: [  0.271772149331119,  0.771772201152332,  0.998366904294490 ]
    mass: 15.999400
    reduced_to: 15
  - symbol: O  # 16
    coordinates: [  0.229958911931336,  0.271772201152332,  0.998366904294490 ]
    mass: 15.999400
    reduced_to: 16
  - symbol: O  # 17
    coordinates: [  0.771772149331119,  0.729959182046616,  0.998366904294490 ]
    mass: 15.999400
    reduced_to: 17
  - symbol: O  # 18
    coordinates: [  0.729958911931336,  0.229959182046616,  0.998366904294490 ]
    mass: 15.999400
    reduced_to: 18
  - symbol: O  # 19
    coordinates: [  0.000865530631228,  0.000865691599474,  0.748366904591748 ]
    mass: 15.999400
    reduced_to: 19
  - symbol: O  # 20
    coordinates: [  0.500865530631228,  0.500865691599474,  0.748366904591748 ]
    mass: 15.999400
    reduced_to: 20

displacement_pairs:
- atom:    1
  displacement:
    [  0.0300000000000000,  0.0000000000000000,  0.0000000000000000 ]
  displacement_id: 1
  paired_with:
  - atom:    1
    pair_distance: 0.00000000
    displacements:
    - [  0.0212132068443470,  0.0212132000268453,  0.0000000000000000 ]
    - [ -0.0212132068443470, -0.0212132000268453,  0.0000000000000000 ]
    - [  0.0000000000000000,  0.0000000000000000,  0.0300000000000000 ]
    displacement_ids: [ 10, 11, 12 ]
  - atom:    2
    pair_distance: 4.18041699
    displacements:
    - [  0.0212132068443470,  0.0212132000268453,  0.0000000000000000 ]
    - [ -0.0212132068443470, -0.0212132000268453,  0.0000000000000000 ]
    - [  0.0000000000000000,  0.0000000000000000,  0.0300000000000000 ]
    displacement_ids: [ 13, 14, 15 ]
  - atom:    3
    pair_distance: 5.92948780
    displacements:
    - [  0.0212132068443470,  0.0212132000268453,  0.0000000000000000 ]
    - [ -0.0212132068443470, -0.0212132000268453,  0.0000000000000000 ]
    - [  0.0000000000000000,  0.0000000000000000,  0.0300000000000000 ]
    displacement_ids: [ 16, 17, 18 ]
  - atom:    4
    pair_distance: 4.20510872
    displacements:
    - [  0.0212132068443470,  0.0212132000268453,  0.0000000000000000 ]
    - [ -0.0212132068443470, -0.0212132000268453,  0.0000000000000000 ]
    - [  0.0000000000000000,  0.0000000000000000,  0.0300000000000000 ]
    displacement_ids: [ 19, 20, 21 ]
  - atom:    5
    pair_distance: 3.62748960
    displacements:
    - [  0.0300000000000000,  0.0000000000000000,  0.0000000000000000 ]
    - [ -0.0300000000000000,  0.0000000000000000,  0.0000000000000000 ]
    - [  0.0000000000000000,  0.0300000000000000,  0.0000000000000000 ]
    - [  0.0000000000000000, -0.0300000000000000,  0.0000000000000000 ]
    - [  0.0000000000000000,  0.0000000000000000,  0.0300000000000000 ]
    - [  0.0000000000000000,  0.0000000000000000, -0.0300000000000000 ]
    displacement_ids: [ 22, 23, 24, 25, 26, 27 ]
  - atom:    6
    pair_distance: 3.62748883
    displacements:
    - [  0.0300000000000000,  0.0000000000000000,  0.0000000000000000 ]
    - [ -0.0300000000000000,  0.0000000000000000,  0.0000000000000000 ]
    - [  0.0000000000000000,  0.0300000000000000,  0.0000000000000000 ]
    - [  0.0000000000000000, -0.0300000000000000,  0.0000000000000000 ]
    - [  0.0000000000000000,  0.0000000000000000,  0.0300000000000000 ]
    - [  0.0000000000000000,  0.0000000000000000, -0.0300000000000000 ]
    displacement_ids: [ 28, 29, 30, 31, 32, 33 ]
  - atom:    9
    pair_distance: 2.84421144
    displacements:
    - [  0.0300000000000000,  0.0000000000000000,  0.0000000000000000 ]
    - [ -0.0300000000000000,  0.0000000000000000,  0.0000000000000000 ]
    - [  0.0000000000000000,  0.0300000000000000,  0.0000000000000000 ]
    - [  0.0000000000000000, -0.0300000000000000,  0.0000000000000000 ]
    - [  0.0000000000000000,  0.0000000000000000,  0.0300000000000000 ]
    - [  0.0000000000000000,  0.0000000000000000, -0.0300000000000000 ]
    displacement_ids: [ 34, 35, 36, 37, 38, 39 ]
  - atom:   10
    pair_distance: 3.09046625
    displacements:
    - [  0.0300000000000000,  0.0000000000000000,  0.0000000000000000 ]
    - [ -0.0300000000000000,  0.0000000000000000,  0.0000000000000000 ]
    - [  0.0000000000000000,  0.0300000000000000,  0.0000000000000000 ]
    - [  0.0000000000000000, -0.0300000000000000,  0.0000000000000000 ]
    - [  0.0000000000000000,  0.0000000000000000,  0.0300000000000000 ]
    - [  0.0000000000000000,  0.0000000000000000, -0.0300000000000000 ]
    displacement_ids: [ 40, 41, 42, 43, 44, 45 ]
  - atom:   11
    pair_distance: 3.09046625
    displacements:
    - [  0.0300000000000000,  0.0000000000000000,  0.0000000000000000 ]
    - [ -0.0300000000000000,  0.0000000000000000,  0.0000000000000000 ]
    - [  0.0000000000000000,  0.0300000000000000,  0.0000000000000000 ]
    - [  0.0000000000000000, -0.0300000000000000,  0.0000000000000000 ]
    - [  0.0000000000000000,  0.0000000000000000,  0.0300000000000000 ]
    - [  0.0000000000000000,  0.0000000000000000, -0.0300000000000000 ]
    displacement_ids: [ 46, 47, 48, 49, 50, 51 ]
  - atom:   12
    pair_distance: 2.84421144
    displacements:
    - [  0.0300000000000000,  0.0000000000000000,  0.0000000000000000 ]
    - [ -0.0300000000000000,  0.0000000000000000,  0.0000000000000000 ]
    - [  0.0000000000000000,  0.0300000000000000,  0.0000000000000000 ]
    - [  0.0000000000000000, -0.0300000000000000,  0.0000000000000000 ]
    - [  0.0000000000000000,  0.0000000000000000,  0.0300000000000000 ]
    - [  0.0000000000000000,  0.0000000000000000, -0.0300000000000000 ]
    displacement_ids: [ 52, 53, 54, 55, 56, 57 ]
  - atom:   13
    pair_distance: 2.95600168
    displacements:
    - [  0.0212132068443470,  0.0212132000268453,  0.0000000000000000 ]
    - [ -0.0212132068443470, -0.0212132000268453,  0.0000000000000000 ]
    - [  0.0000000000000000,  0.0000000000000000,  0.0300000000000000 ]
    displacement_ids: [ 58, 59, 60 ]
  - atom:   14
    pair_distance: 2.95600073
    displacements:
    - [  0.0212132068443470,  0.0212132000268453,  0.0000000000000000 ]
    - [ -0.0212132068443470, -0.0212132000268453,  0.0000000000000000 ]
    - [  0.0000000000000000,  0.0000000000000000,  0.0300000000000000 ]
    displacement_ids: [ 61, 62, 63 ]
  - atom:   19
    pair_distance: 5.14012448
    displacements:
    - [  0.0212132068443470,  0.0212132000268453,  0.0000000000000000 ]
    - [ -0.0212132068443470, -0.0212132000268453,  0.0000000000000000 ]
    - [  0.0000000000000000,  0.0000000000000000,  0.0300000000000000 ]
    displacement_ids: [ 64, 65, 66 ]
  - atom:   20
    pair_distance: 5.14012503
    displacements:
    - [  0.0212132068443470,  0.0212132000268453,  0.0000000000000000 ]
    - [ -0.0212132068443470, -0.0212132000268453,  0.0000000000000000 ]
    - [  0.0000000000000000,  0.0000000000000000,  0.0300000000000000 ]
    displacement_ids: [ 67, 68, 69 ]
- atom:    1
  displacement:
    [  0.0000000000000000,  0.0000000000000000,  0.0300000000000000 ]
  displacement_id: 2
  paired_with:
  - atom:    1
    pair_distance: 0.00000000
    displacements:
    - [  0.0172525084287097,  0.0000000000000000,  0.0245428391372576 ]
    - [ -0.0172525084287097,  0.0000000000000000, -0.0245428391372576 ]
    displacement_ids: [ 70, 71 ]
  - atom:    2
    pair_distance: 4.18041699
    displacements:
    - [  0.0172525084287097,  0.0000000000000000,  0.0245428391372576 ]
    - [ -0.0172525084287097,  0.0000000000000000, -0.0245428391372576 ]
    displacement_ids: [ 72, 73 ]
  - atom:    3
    pair_distance: 5.92948780
    displacements:
    - [  0.0172525084287097,  0.0000000000000000,  0.0245428391372576 ]
    - [ -0.0172525084287097,  0.0000000000000000, -0.0245428391372576 ]
    displacement_ids: [ 74, 75 ]
  - atom:    4
    pair_distance: 4.20510872
    displacements:
    - [  0.0172525084287097,  0.0000000000000000,  0.0245428391372576 ]
    - [ -0.0172525084287097,  0.0000000000000000, -0.0245428391372576 ]
    displacement_ids: [ 76, 77 ]
  - atom:    5
    pair_distance: 3.62748960
    displacements:
    - [  0.0172525084287097,  0.0000000000000000,  0.0245428391372576 ]
    - [ -0.0172525084287097,  0.0000000000000000, -0.0245428391372576 ]
    - [  0.0000000000000000,  0.0300000000000000,  0.0000000000000000 ]
    displacement_ids: [ 78, 79, 80 ]
  - atom:    7
    pair_distance: 3.62748882
    displacements:
    - [  0.0172525084287097,  0.0000000000000000,  0.0245428391372576 ]
    - [ -0.0172525084287097,  0.0000000000000000, -0.0245428391372576 ]
    - [  0.0000000000000000,  0.0300000000000000,  0.0000000000000000 ]
    displacement_ids: [ 81, 82, 83 ]
  - atom:    9
    pair_distance: 2.84421144
    displacements:
    - [  0.0300000000000000,  0.0000000000000000,  0.0000000000000000 ]
    - [ -0.0300000000000000,  0.0000000000000000,  0.0000000000000000 ]
    - [  0.0000000000000000,  0.0000000000000000,  0.0300000000000000 ]
    - [  0.0000000000000000,  0.0000000000000000, -0.0300000000000000 ]
    displacement_ids: [ 84, 85, 86, 87 ]
  - atom:   10
    pair_distance: 3.09046625
    displacements:
    - [  0.0300000000000000,  0.0000000000000000,  0.0000000000000000 ]
    - [ -0.0300000000000000,  0.0000000000000000,  0.0000000000000000 ]
    - [  0.0000000000000000,  0.0000000000000000,  0.0300000000000000 ]
    - [  0.0000000000000000,  0.0000000000000000, -0.0300000000000000 ]
    displacement_ids: [ 88, 89, 90, 91 ]
  - atom:   13
    pair_distance: 2.95600168
    displacements:
    - [  0.0172525084287097,  0.0000000000000000,  0.0245428391372576 ]
    - [ -0.0172525084287097,  0.0000000000000000, -0.0245428391372576 ]
    - [  0.0000000000000000,  0.0300000000000000,  0.0000000000000000 ]
    displacement_ids: [ 92, 93, 94 ]
  - atom:   15
    pair_distance: 3.09046625
    displacements:
    - [  0.0300000000000000,  0.0000000000000000,  0.0000000000000000 ]
    - [ -0.0300000000000000,  0.0000000000000000,  0.0000000000000000 ]
    - [  0.0000000000000000,  0.0000000000000000,  0.0300000000000000 ]
    - [  0.0000000000000000,  0.0000000000000000, -0.0300000000000000 ]
    displacement_ids: [ 95, 96, 97, 98 ]
  - atom:   16
    pair_distance: 2.84421143
    displacements:
    - [  0.0300000000000000,  0.0000000000000000,  0.0000000000000000 ]
    - [ -0.0300000000000000,  0.0000000000000000,  0.0000000000000000 ]
    - [  0.0000000000000000,  0.0000000000000000,  0.0300000000000000 ]
    - [  0.0000000000000000,  0.0000000000000000, -0.0300000000000000 ]
    displacement_ids: [ 99, 100, 101, 102 ]
  - atom:   19
    pair_distance: 5.14012448
    displacements:
    - [  0.0172525084287097,  0.0000000000000000,  0.0245428391372576 ]
    - [ -0.0172525084287097,  0.0000000000000000, -0.0245428391372576 ]
    - [  0.0000000000000000,  0.0300000000000000,  0.0000000000000000 ]
    displacement_ids: [ 103, 104, 105 ]
- atom:    5
  displacement:
    [  0.0300000000000000,  0.0000000000000000,  0.0000000000000000 ]
  displacement_id: 3
  paired_with:
  - atom:    1
    pair_distance: 3.62748960
    displacements:
    - [  0.0300000000000000,  0.0000000000000000,  0.0000000000000000 ]
    - [ -0.0300000000000000,  0.0000000000000000,  0.0000000000000000 ]
    - [  0.0000000000000000,  0.0300000000000000,  0.0000000000000000 ]
    - [  0.0000000000000000, -0.0300000000000000,  0.0000000000000000 ]
    - [  0.0000000000000000,  0.0000000000000000,  0.0300000000000000 ]
    - [  0.0000000000000000,  0.0000000000000000, -0.0300000000000000 ]
    displacement_ids: [ 106, 107, 108, 109, 110, 111 ]
  - atom:    2
    pair_distance: 3.62748883
    displacements:
    - [  0.0300000000000000,  0.0000000000000000,  0.0000000000000000 ]
    - [ -0.0300000000000000,  0.0000000000000000,  0.0000000000000000 ]
    - [  0.0000000000000000,  0.0300000000000000,  0.0000000000000000 ]
    - [  0.0000000000000000, -0.0300000000000000,  0.0000000000000000 ]
    - [  0.0000000000000000,  0.0000000000000000,  0.0300000000000000 ]
    - [  0.0000000000000000,  0.0000000000000000, -0.0300000000000000 ]
    displacement_ids: [ 112, 113, 114, 115, 116, 117 ]
  - atom:    5
    pair_distance: 0.00000000
    displacements:
    - [  0.0172525084287097,  0.0000000000000000,  0.0245428391372576 ]
    - [ -0.0172525084287097,  0.0000000000000000, -0.0245428391372576 ]
    - [  0.0000000000000000,  0.0300000000000000,  0.0000000000000000 ]
    - [  0.0000000000000000, -0.0300000000000000,  0.0000000000000000 ]
    displacement_ids: [ 118, 119, 120, 121 ]
  - atom:    6
    pair_distance: 4.18041699
    displacements:
    - [  0.0172525084287097,  0.0000000000000000,  0.0245428391372576 ]
    - [ -0.0172525084287097,  0.0000000000000000, -0.0245428391372576 ]
    - [  0.0000000000000000,  0.0300000000000000,  0.0000000000000000 ]
    - [  0.0000000000000000, -0.0300000000000000,  0.0000000000000000 ]
    displacement_ids: [ 122, 123, 124, 125 ]
  - atom:    7
    pair_distance: 5.92948781
    displacements:
    - [  0.0172525084287097,  0.0000000000000000,  0.0245428391372576 ]
    - [ -0.0172525084287097,  0.0000000000000000, -0.0245428391372576 ]
    - [  0.0000000000000000,  0.0300000000000000,  0.0000000000000000 ]
    - [  0.0000000000000000, -0.0300000000000000,  0.0000000000000000 ]
    displacement_ids: [ 126, 127, 128, 129 ]
  - atom:    8
    pair_distance: 4.20510873
    displacements:
    - [  0.0172525084287097,  0.0000000000000000,  0.0245428391372576 ]
    - [ -0.0172525084287097,  0.0000000000000000, -0.0245428391372576 ]
    - [  0.0000000000000000,  0.0300000000000000,  0.0000000000000000 ]
    - [  0.0000000000000000, -0.0300000000000000,  0.0000000000000000 ]
    displacement_ids: [ 130, 131, 132, 133 ]
  - atom:    9
    pair_distance: 2.09750505
    displacements:
    - [  0.0172525084287097,  0.0000000000000000,  0.0245428391372576 ]
    - [ -0.0172525084287097,  0.0000000000000000, -0.0245428391372576 ]
    - [  0.0000000000000000,  0.0300000000000000,  0.0000000000000000 ]
    - [  0.0000000000000000, -0.0300000000000000,  0.0000000000000000 ]
    displacement_ids: [ 134, 135, 136, 137 ]
  - atom:   10
    pair_distance: 2.09750403
    displacements:
    - [  0.0172525084287097,  0.0000000000000000,  0.0245428391372576 ]
    - [ -0.0172525084287097,  0.0000000000000000, -0.0245428391372576 ]
    - [  0.0000000000000000,  0.0300000000000000,  0.0000000000000000 ]
    - [  0.0000000000000000, -0.0300000000000000,  0.0000000000000000 ]
    displacement_ids: [ 138, 139, 140, 141 ]
  - atom:   11
    pair_distance: 2.09750403
    displacements:
    - [  0.0172525084287097,  0.0000000000000000,  0.0245428391372576 ]
    - [ -0.0172525084287097,  0.0000000000000000, -0.0245428391372576 ]
    - [  0.0000000000000000,  0.0300000000000000,  0.0000000000000000 ]
    - [  0.0000000000000000, -0.0300000000000000,  0.0000000000000000 ]
    displacement_ids: [ 142, 143, 144, 145 ]
  - atom:   12
    pair_distance: 2.09750505
    displacements:
    - [  0.0172525084287097,  0.0000000000000000,  0.0245428391372576 ]
    - [ -0.0172525084287097,  0.0000000000000000, -0.0245428391372576 ]
    - [  0.0000000000000000,  0.0300000000000000,  0.0000000000000000 ]
    - [  0.0000000000000000, -0.0300000000000000,  0.0000000000000000 ]
    displacement_ids: [ 146, 147, 148, 149 ]
  - atom:   13
    pair_distance: 2.10255437
    displacements:
    - [  0.0300000000000000,  0.0000000000000000,  0.0000000000000000 ]
    - [ -0.0300000000000000,  0.0000000000000000,  0.0000000000000000 ]