ITEM: TIMESTEP
0
ITEM: NUMBER OF ATOMS
20
ITEM: BOX BOUNDS pp pp pp
0.0000000000000000e+00 5.9120033599999999e+00
0.0000000000000000e+00 5.9120014599999999e+00
0.0000000000000000e+00 8.4102174499999993e+00
ITEM: ATOMS id type x y z fx fy fz
1 1 0.035117 2.96112 2.08882 -0.150539 3.74402e-10 1.78977e-08
2 1 2.96112 0.00511797 2.08882 0.038695 -3.29424e-14 1.78482e-08
3 1 2.96112 0.00511797 6.29393 0.0089627 -1.66962e-12 -3.62975e-09
4 1 0.00511702 2.96112 6.29393 -0.00891174 8.95758e-12 -3.6255e-09
5 2 2.96112 2.96112 4.19137 0.0943616 0.000175299 0.00245546
6 2 0.00511702 0.00511797 4.19137 -0.0449253 0.00544858 -0.000579685
7 2 0.00511702 0.00511797 8.39648 -0.0449253 -0.00544858 0.00057965
8 2 2.96112 2.96112 8.39648 0.0943616 -0.000175299 -0.00245549
9 3 4.56272 1.60672 4.19137 0.00654559 -0.00325519 0.002683
10 3 4.31552 4.56272 4.19137 -0.00141004 0.00745236 0.00917029
11 3 1.60672 1.35952 4.19137 0.000143907 0.00695482 -0.00904813
12 3 1.35952 4.31552 4.19137 0.00733575 -0.00335371 -0.00192361
13 3 2.96112 2.96112 2.08882 -0.0333379 -1.07245e-11 8.33852e-08
14 3 0.00511702 0.00511797 2.08882 0.0178889 4.65814e-11 8.33812e-08
15 3 1.60672 4.56272 8.39648 0.000143907 -0.00695481 0.00904811
16 3 1.35952 1.60672 8.39648 0.00733575 0.00335371 0.00192359
17 3 4.56272 4.31552 8.39648 0.00654559 0.00325519 -0.00268302
18 3 4.31552 1.35952 8.39648 -0.00141004 -0.00745236 -0.00917031
19 3 0.00511702 0.00511797 6.29393 0.0078731 8.97848e-12 -3.13288e-08
20 3 2.96112 2.96112 6.29393 -0.00473403 -3.06029e-12 -3.13272e-08
