
80 atoms
3 atom types
   0.0000000000   11.8240067200 xlo xhi
   0.0000000000   11.8240029200 ylo yhi
   0.0000000000    8.4102174500 zlo zhi
   0.0000000000    0.0000000000    0.0000000000 xy xz yz

Masses

1 137.327  # Ba
2 91.224  # Zr
3 15.9994  # O

Atoms # atomic

     1      1    0.0563302268    2.9823319000    2.0888196700
     2      1    5.9171203800    2.9611187000    2.0888196700
     3      1    0.0051170200    8.8731201600    2.0888196700
     4      1    5.9171203800    8.8731201600    2.0888196700
     5      1    2.9611187000    0.0051179700    2.0888196700
     6      1    8.8731220600    0.0051179700    2.0888196700
     7      1    2.9611187000    5.9171194300    2.0888196700
     8      1    8.8731220600    5.9171194300    2.0888196700
     9      1    2.9611187000    0.0051179700    6.2939284000
    10      1    8.8731220600    0.0051179700    6.2939284000
    11      1    2.9611187000    5.9171194300    6.2939284000
    12      1    8.8731220600    5.9171194300    6.2939284000
    13      1    0.0051170200    2.9611187000    6.2939284000
    14      1    5.9171203800    2.9611187000    6.2939284000
    15      1    0.0051170200    8.8731201600    6.2939284000
    16      1    5.9171203800    8.8731201600    6.2939284000
    17      2    2.9611187000    2.9611187000    4.1913740400
    18      2    8.8731220600    2.9611187000    4.1913740400
    19      2    2.9611187000    8.8731201600    4.1913740400
    20      2    8.8731220600    8.8731201600    4.1913740400
    21      2    0.0051170200    0.0051179700    4.1913740400
    22      2    5.9171203800    0.0051179700    4.1913740400
    23      2    0.0051170200    5.9171194300    4.1913740400
    24      2    5.9171203800    5.9171194300    4.1913740400
    25      2    0.0051170200    0.0051179700    8.3964827600
    26      2    5.9171203800    0.0051179700    8.3964827600
    27      2    0.0051170200    5.9171194300    8.3964827600
    28      2    5.9171203800    5.9171194300    8.3964827600
    29      2    2.9611187000    2.9611187000    8.3964827600
    30      2    8.8731220600    2.9611187000    8.3964827600
    31      2    2.9611187000    8.8731201600    8.3964827600
    32      2    8.8731220600    8.8731201600    8.3964827600
    33      3    4.5627195400    1.6067176500    4.1913740400
    34      3   10.4747229000    1.6067176500    4.1913740400
    35      3    4.5627195400    7.5187191100    4.1913740400
    36      3   10.4747229000    7.5187191100    4.1913740400
    37      3    4.3155195400    4.5627183800    4.1913740400
    38      3   10.2275229000    4.5627183800    4.1913740400
    39      3    4.3155195400   10.4747198400    4.1913740400
    40      3   10.2275229000   10.4747198400    4.1913740400
    41      3    1.6067178600    1.3595190200    4.1913740400
    42      3    7.5187212200    1.3595190200    4.1913740400
    43      3    1.6067178600    7.2715204800    4.1913740400
    44      3    7.5187212200    7.2715204800    4.1913740400
    45      3    1.3595178600    4.3155197500    4.1913740400
    46      3    7.2715212200    4.3155197500    4.1913740400
    47      3    1.3595178600   10.2275212100    4.1913740400
    48      3    7.2715212200   10.2275212100    4.1913740400
    49      3    2.9611187000    2.9611187000    2.0888196700
    50      3    8.8731220600    2.9611187000    2.0888196700
    51      3    2.9611187000    8.8731201600    2.0888196700
    52      3    8.8731220600    8.8731201600    2.0888196700
    53      3    0.0051170200    0.0051179700    2.0888196700
    54      3    5.9171203800    0.0051179700    2.0888196700
    55      3    0.0051170200    5.9171194300    2.0888196700
    56      3    5.9171203800    5.9171194300    2.0888196700
    57      3    1.6067178600    4.5627183800    8.3964827600
    58      3    7.5187212200    4.5627183800    8.3964827600
    59      3    1.6067178600   10.4747198400    8.3964827600
    60      3    7.5187212200   10.4747198400    8.3964827600
    61      3    1.3595178600    1.6067176500    8.3964827600
    62      3    7.2715212200    1.6067176500    8.3964827600
    63      3    1.3595178600    7.5187191100    8.3964827600
    64      3    7.2715212200    7.5187191100    8.3964827600
    65      3    4.5627195400    4.3155197500    8.3964827600
    66      3   10.4747229000    4.3155197500    8.3964827600
    67      3    4.5627195400   10.2275212100    8.3964827600
    68      3   10.4747229000   10.2275212100    8.3964827600
    69      3    4.3155195400    1.3595190200    8.3964827600
    70      3   10.2275229000    1.3595190200    8.3964827600
    71      3    4.3155195400    7.2715204800    8.3964827600
    72      3   10.2275229000    7.2715204800    8.3964827600
    73      3    0.0051170200    0.0051179700    6.2939284000
    74      3    5.9171203800    0.0051179700    6.2939284000
    75      3    0.0051170200    5.9171194300    6.2939284000
    76      3    5.9171203800    5.9171194300    6.2939284000
    77      3    2.9611187000    2.9611187000    6.2939284000
    78      3    8.8731220600    2.9611187000    6.2939284000
    79      3    2.9611187000    8.8731201600    6.2939284000
    80      3    8.8731220600    8.8731201600    6.2939284000
